[ Backbone ]
5759 5761 5776 5778 5780 5798 5800 5802 5809 5811 5813 5833 5835 5837 5852 
5854 5856 5862 5944 5946 5961 5963 5965 5980 6015 6017 6032 6034 6036 6039
6657 6659 6674 6676 6678 6693 6695 6697 6714 6717 6721 6728 6730 6732 6748 
6750 6752 6764 6766 6768 6778 6780 6782 6792 6794 6796 6807 6809 6811 6823
