[ Backbone ]
   1    5   18   20   22   40   42   44   54   56   58   73   75   77   92
  94   96  102  104  106  121  123  125  132  134  136  153  155  157  172
 174  176  192  194  196  203  205  207  222  224  226  238  240  242  258
 260  262  268  270  272  281  283  285  302  304  306  324  326  328  336
 338  340  348  350  352  360  362  364  372  374  376  391  393  395  406
 408  410  422  424  426  441  443  445  461  463  465  478  480  482  485
 487  497  499  501  503  509  511  513  533  535  545  547  549  551  564
 566  568  571  573  575  581  583  585  595  597  599  611  613  615  622
 624  626  641  643  645  665  667  669  680  682  684  694  696  698  710
 712  714  727  729  731  749  751  753  773  775  777  797  799  801  812
 814  816  833  835  837  857  859  861  881  883  885  898  900  902  909
 911  913  926  928  930  950  952  954  961  963  965  980  982  984  994
 996  998 1009 1011 1013 1021 1023 1033 1035 1037 1047 1049 1051 1061 1063
1065 1067 1073 1075 1077 1087 1089 1091 1099 1101 1103 1118 1120 1122 1138
1140 1142 1149 1151 1153 1163 1165 1167 1187 1190 1194 1204 1206 1208 1224
1226 1228 1236 1238 1240 1251 1253 1255 1272 1274 1276 1282 1284 1286 1293
1295 1297 1317 1319 1329 1331 1333 1335 1343 1345 1347 1350 1352 1354 1365
1367 1377 1379 1381 1383 1386 1388 1390 1397 1399 1401 1417 1419 1421 1433
1435 1437 1447 1449 1451 1463 1465 1467 1474 1476 1478 1485 1487 1497 1499
1501 1503 1523 1525 1527 1544 1546 1548 1563 1565 1575 1577 1579 1581 1601
1603 1605 1611 1613 1615 1622 1624 1626 1633 1635 1637 1649 1651 1661 1663
1665 1667 1680 1682 1684 1687 1689 1691 1704 1706 1708 1720 1722 1724 1741
1743 1745 1765 1767 1769 1785 1787 1789 1796 1798 1800 1810 1812 1814 1820
1822 1824 1835 1837 1839 1842 1844 1846 1861 1863 1865 1885 1887 1889 1904
1906 1908 1921 1923 1925 1943 1945 1947 1955 1957 1959 1969 1971 1973 1980
1982 1984 1991 1993 1995 2010 2012 2022 2024 2026 2028 2048 2050 2052 2072
2074 2076 2085 2087 2089 2104 2107 2111 2118 2120 2122 2133 2135 2137 2144
2146 2148 2159 2161 2163 2174 2176 2178 2185 2187 2189 2207 2209 2211 2231
2233 2235 2238 2240 2242 2253 2255 2257 2277 2279 2281 2288 2290 2292 2299
2301 2311 2313 2315 2317 2328 2330 2332 2343 2345 2347 2360 2362 2364 2379
2381 2383 2398 2400 2402 2418 2420 2422 2437 2439 2441 2458 2460 2462 2477
2479 2481 2496 2498 2500 2517 2519 2521 2531 2533 2535 2547 2549 2551 2554
2556 2558 2575 2577 2579 2585 2587 2589 2604 2606 2608 2615 2617 2619 2635
2637 2639 2646 2648 2650 2656 2658 2660 2675 2677 2679 2691 2693 2695 2710
2712 2714 2720 2722 2724 2731 2733 2735 2741 2743 2745 2760 2762 2764 2779
2781 2783 2798 2800 2802 2805 2807 2809 2825 2827 2829 2849 2851 2853 2866
2868 2870 2885 2887 2889 2902 2904 2906 2913 2915 2917 2927 2929 2931 2951
2953 2955 2965 2967 2969 2986 2988 2990 3005 3007 3009 3022 3024 3026 3041
3043 3045 3055 3057 3059 3074 3076 3078 3094 3096 3098 3104 3106 3108 3115
3117 3119 3135 3137 3139 3154 3156 3158 3173 3175 3177 3197 3199 3201 3207
3209 3211 3226 3228 3230 3237 3239 3241 3253 3255 3257 3273 3275 3277 3292
3294 3296 3314 3316 3318 3326 3328 3330 3336 3338 3340 3346 3348 3350 3365
3367 3369 3387 3389 3391 3411 3413 3415 3428 3430 3432 3449 3451 3453 3460
3462 3464 3474 3476 3478 3484 3486 3488 3494 3496 3498 3511 3513 3515 3528
3530 3532 3545 3547 3549 3562 3564 3566 3586 3588 3590 3598 3600 3602 3605
3607 3609 3624 3626 3628 3643 3645 3647 3654 3656 3658 3675 3677 3679 3692
3694 3696 3704 3706 3708 3715 3717 3719 3734 3736 3738 3745 3747 3749 3756
3758 3760 3780 3782 3784 3799 3801 3803 3815 3817 3819 3835 3837 3839 3854
3856 3858 3873 3875 3877 3890 3892 3894 3907 3909 3911 3928 3930 3932 3939
3941 3943 3955 3957 3959 3965 3967 3969 3975 3977 3979 3989 3991 3993 4010
4012 4014 4031 4033 4035 4055 4057 4059 4074 4076 4078 4093 4095 4097 4109
4111 4113 4124 4126 4128 4131 4133 4135 4147 4149 4151 4168 4170 4172 4187
4189 4191 4208 4210 4212 4222 4224 4226 4241 4243 4245 4260 4262 4264 4270
4272 4274 4290 4292 4294 4301 4303 4305 4317 4319 4321 4337 4339 4341 4348
4350 4352 4363 4365 4367 4380 4382 4384 4404 4406 4408 4423 4425 4427 4443
4445 4447 4467 4469 4471 4486 4488 4490 4507 4509 4511 4523 4525 4527 4534
4536 4538 4553 4555 4557 4560 4562 4564 4584 4586 4588 4591 4593 4595 4607
4609 4619 4621 4623 4625 4640 4642 4644 4659 4661 4663 4679 4681 4683 4695
4697 4699 4711 4713 4723 4725 4727 4729 4749 4751 4753 4756 4758 4760 4775
4777 4779 4791 4793 4795 4813 4815 4817 4834 4836 4838 4853 4855 4857 4874
4876 4878 4889 4891 4893 4901 4903 4905 4916 4918 4920 4923 4925 4927 4934
4936 4938 4958 4960 4962 4972 4974 4976 4996 4998 5000 5010 5012 5014 5021
5023 5025 5035 5037 5039 5052 5054 5056 5066 5068 5070 5087 5089 5091 5111
5113 5115 5130 5132 5134 5149 5151 5153 5168 5170 5172 5192 5194 5196 5211
5213 5223 5225 5227 5229 5244 5246 5248 5263 5265 5267 5283 5285 5287 5293
5295 5297 5312 5314 5316 5319 5321 5323 5335 5337 5339 5349 5351 5353 5369
5371 5373 5388 5390 5392 5407 5409 5411 5427 5429 5431 5443 5445 5447 5467
5469 5471 5483 5485 5487 5502 5504 5506 5513 5515 5517 5532 5534 5536 5548
5550 5552 5564 5566 5568 5575 5577 5579 5597 5599 5601 5616 5618 5620 5638
5640 5642 5648 5650 5652 5662 5664 5666 5681 5683 5685 5698 5700 5702 5709
5711 5713 5731 5733 5735 5745 5747 5749 5757 5759 5761 5776 5778 5780 5798
5800 5802 5809 5811 5813 5833 5835 5837 5852 5854 5856 5862 5864 5866 5884
5886 5888 5895 5897 5899 5909 5911 5913 5928 5930 5932 5942 5944 5946 5961
5963 5965 5980 5982 5992 5994 5996 5998 6013 6015 6017 6032 6034 6036 6039
6041 6043 6053 6055 6057 6070 6072 6074 6085 6087 6089 6101 6103 6105 6120
6122 6124 6140 6142 6144 6150 6152 6154 6170 6172 6174 6186 6188 6190 6203
6205 6207 6215 6217 6219 6230 6232 6234 6247 6249 6251 6257 6259 6261 6281
6283 6285 6288 6290 6292 6302 6304 6306 6321 6323 6325 6345 6347 6349 6365
6367 6369 6384 6386 6388 6406 6408 6410 6425 6427 6429 6445 6447 6449 6459
6461 6463 6474 6476 6478 6493 6495 6497 6504 6506 6508 6524 6526 6528 6538
6540 6542 6549 6551 6553 6569 6571 6573 6586 6588 6590 6593 6595 6597 6612
6614 6616 6629 6631 6633 6645 6647 6649 6655 6657 6659 6674 6676 6678 6693
6695 6697 6714 6717 6721 6728 6730 6732 6748 6750 6752 6764 6766 6768 6778
6780 6782 6792 6794 6796 6807 6809 6811 6823 6825 6827 6840 6842 6844 6859
6861 6863 6874 6876 6878 6894 6896 6898 6918 6920 6922 6940 6942 6944 6951
6953 6955 6975 6977 6979 6990 6992 6994 7014 7016 7018 7038 7040 7042 7062
7064 7066 7081 7083 7085 7096 7098 7100 7113 7115 7117 7132 7134 7136 7149
7151 7153 7168 7170 7172 7185 7187 7189 7209 7211 7213 7221 7223 7225 7232
7234 7236 7243 7245 7247 7260 7262 7264 7282 7284 7294 7296 7298 7300 7315
7317 7319 7337 7339 7341 7348 7350 7360 7362 7364 7366 7376 7378 7380 7387
7389 7391 7398 7400 7402 7417 7419 7421 7428 7430 7432 7439 7441 7443 7446
7448 7450 7456 7458 7460 7470 7472 7474 7480 7482 7484 7487 7489 7491 7498
7500 7502 7509 7511 7513 7526 7528 7530 7547 7549 7551 7561 7563 7565 7571
7573 7575 7585 7587 7589 7596 7598 7600 7613 7615 7617 7623 7625 7627 7634
7636 7638 7645 7647 7649 7656 7658 7668 7670 7672 7674 7680 7682 7684 7687
7689 7691 7706 7708 7710 7721 7723 7725 7737 7739 7741 7756 7758 7760 7776
7778 7780 7793 7795 7797 7800 7802 7812 7814 7816 7818 7831 7833 7835 7848
7850 7852 7865 7867 7869 7882 7884 7886 7899 7901 7903 7916 7918 7920 7933
7935 7937 7950
