[ Backbone ]
5759 5761 5776 5778 5780 5798 5800 5802 5809 5811 5813 5833 5835 5837 5852 
5854 5856 5862 5864 5866 5884 5886 5888 5895 5897 5899 5909 5911 5913 5928 
5930 5932 5942 5944 5946 5961 5963 5965 5980 5982 5992 5994 5996 5998 6013 
6015 6017 6032 6034 6036 6039 6041 6043 6053 6055 6057 6070 6072 6074 6085 
6087 6089 6101 6103 6105 6120 6323 6325 6345 6347 6349 6365 6367 6369 6384 
6386 6388 6406 6408 6410 6425 6427 6429 6445 6447 6449 6459 6461 6463 6474 
6476 6478 6493 6495 6497 6504 6506 6508 6524 6526 6528 6538 6540 6542 6549 
6551 6553 6569 6571 6573 6586 6588 6590 6593 6595 6597 6612 6614 6616 6629 
6631 6633 6645 6647 6649 6655 6657 6659 6674 6676 6678 6693 6695 6697 6714 
6717 6721 6728 6730 6732 6748 6750 6752 6764 