;;
;; Generated by CHARMM-GUI FF-Converter
;;
;; Correspondance:
;; jul316@lehigh.edu or wonpil@lehigh.edu
;;
;; The main GROMACS topology file
;;

; Include forcefield parameters
#include "toppar/forcefield.itp"
#include "toppar/PROA.itp"
#include "toppar/PROB.itp"
#include "toppar/PROC.itp"
#include "toppar/PROD.itp"
#include "toppar/POPC.itp"
#include "toppar/K+.itp"
#include "toppar/Cl-.itp"
#include "toppar/TP3.itp"

[ system ]
; Name
Title

[ molecules ]
; Compound	#mols
PROA  	           1
PROB  	           1
PROC  	           1
PROD  	           1
POPC  	         383
K+    	         161
Cl-   	         162
TP3   	       59262
